HEADER
"PSFversion" "1.00"
"M4n M1n M3n M2n" "NCSU_Analog_Parts_pmos4_spectre"
"I_Inv" ":1v"
"I_Outv" ":2v"
"I_ov" ":3v"
"Squaredv" ":4v"
