HEADER
"PSFversion" "1.00"
"N1n N0n N4n N5n N6n N7n" "NCSU_Analog_Parts_nmos4_spectre"
"P0n" "NCSU_Analog_Parts_pmos4_spectre"
"I_Inv" ":1v"
"I_Outv" ":2v"
"Ib_Inv" ":3v"
