HEADER
"PSFversion" "1.00"
"I0n" "i_squared"
"P1n P0n" "NCSU_Analog_Parts_pmos4_spectre"
"N0n" "NCSU_Analog_Parts_nmos4_spectre"
"V2n" "NCSU_Analog_Parts_vdc_spectre"
"I5n I4n" "NCSU_Analog_Parts_idc_spectre"
