HEADER
"PSFversion" "1.00"
"design" "(\"cse463_project\" \"xor_operation\" \"schematic\" \"\")"
"simulator" "spectre"
"temperature" "27"
"host" ""
"date" "Apr 14 04:37:20 2016"
"title" ""
"analysisList" "()"
END
