HEADER
"PSFversion" "1.00"
"I4n I5n I6n I7n I8n I9n I10n I12n" "cse463_project_7_1_mux_alt_schematic"
"I0n" "Adder_2_8bits"
"I2n" "cse463_project_8_bit_xor_schematic"
"I1n" "cse463_project_8_bit_and_schematic"
"I3n" "cse463_project_8_bit_or_schematic"
"I15n" "cse463_project_8_bit_com_schematic"
"AC<0>v" ":1v"
"AC<1>v" ":2v"
"AC<2>v" ":3v"
"AC<3>v" ":4v"
"AC<4>v" ":5v"
"AC<5>v" ":6v"
"AC<6>v" ":7v"
"AC<7>v" ":8v"
"IN<0>v" ":9v"
"IN<1>v" ":10v"
"IN<2>v" ":11v"
"IN<3>v" ":12v"
"IN<4>v" ":13v"
"IN<5>v" ":14v"
"IN<6>v" ":15v"
"IN<7>v" ":16v"
"INPR<0>v" ":17v"
"INPR<1>v" ":18v"
"INPR<2>v" ":19v"
"INPR<3>v" ":20v"
"INPR<4>v" ":21v"
"INPR<5>v" ":22v"
"INPR<6>v" ":23v"
"INPR<7>v" ":24v"
"OUT<0>v" ":25v"
"OUT<1>v" ":26v"
"OUT<2>v" ":27v"
"OUT<3>v" ":28v"
"OUT<4>v" ":29v"
"OUT<5>v" ":30v"
"OUT<6>v" ":31v"
"OUT<7>v" ":32v"
"S<0>v" ":33v"
"S<1>v" ":34v"
"S<2>v" ":35v"
"S<3>v" ":36v"
"S<4>v" ":37v"
"S<5>v" ":38v"
"[@inh_bn:%:gnd!]v" ":39v"
