HEADER
"PSFversion" "1.00"
"M3n M2n M1n M0n" "NCSU_Analog_Parts_pmos_spectre"
"I6n I5n" "min_inv"
"M7n M6n M5n M4n" "NCSU_Analog_Parts_nmos_spectre"
"Otherv" ":1v"
"Outv" ":2v"
"Regv" ":3v"
"[@inh_bn:%:gnd!]v" ":4v"
