HEADER
"PSFversion" "1.00"
"N6n N5n N4n N3n N2n N1n" "NCSU_Analog_Parts_nmos4_spectre"
"P9n P7n P5n P4n P1n" "NCSU_Analog_Parts_pmos4_spectre"
