HEADER
"PSFversion" "1.00"
"V0n" "NCSU_Analog_Parts_vdc_spectre"
"I13n I5n" "NCSU_Analog_Parts_idc_spectre"
"N2n N0n N1n" "NCSU_Analog_Parts_nmos4_spectre"
"P7n P6n I_on I_2n I_Outn I_1n P1n P0n" "NCSU_Analog_Parts_pmos4_spectre"
