HEADER
"PSFversion" "1.00"
"design" "(\"cse562\" \"new_squarer\" \"schematic\" \"\")"
"simulator" "spectre"
"temperature" "27"
"host" ""
"date" "Nov  6 16:14:02 2015"
"title" ""
"analysisList" "()"
END
