HEADER
"PSFversion" "1.00"
"Time Stamp" "Nov  6 16:14:02 2015"
TYPE
"variable" STRUCT(
"value" FLOAT DOUBLE
) PROP( "key" "element" )
VALUE
"pL" "variable" ( 2e-6 ) PROP( )
"pW" "variable" ( 2.4e-6 ) PROP( )
"nL" "variable" ( 2e-6 ) PROP( )
"nW" "variable" ( 2.4e-6 ) PROP( )
"temp" "variable" ( 27 ) PROP( )
END
