HEADER
"PSFversion" "1.00"
"__NEXT_FILE__" "ALU_top_bens_mux_test"
