HEADER
"PSFversion" "1.00"
"N3n N2n N1n N0n" "NCSU_Analog_Parts_nmos4_spectre"
"P4n P3n P2n" "NCSU_Analog_Parts_pmos4_spectre"
"V0n" "NCSU_Analog_Parts_vdc_spectre"
"I1n" "NCSU_Analog_Parts_idc_spectre"
