HEADER
"PSFversion" "1.00"
"V5n V30n V31n V7n" "NCSU_Analog_Parts_vpulse_spectre"
"C1n" "NCSU_Analog_Parts_cap_spectre"
"I0n" "cse463_project_3_1_mux_alt_extracted"
"V0n" "NCSU_Analog_Parts_vdc_spectre"
"I5n" "d_flip_flop"
"I4n" "min_inv"
