HEADER
"PSFversion" "1.00"
"__NEXT_FILE__" "clear_extracted_test"
