HEADER
"PSFversion" "1.00"
"design" "(\"cse562\" \"delta_sigma\" \"schematic\" \"\")"
"simulator" "spectre"
"temperature" "27"
"host" ""
"date" "Dec 19 11:46:35 2015"
"title" ""
"analysisList" "()"
END
