HEADER
"PSFversion" "1.00"
"I6n" "cmos_nand"
"C0n" "NCSU_Analog_Parts_cap_spectre"
"V2n V0n V1n" "NCSU_Analog_Parts_vdc_spectre"
