HEADER
"PSFversion" "1.00"
"N3n N2n" "NCSU_Analog_Parts_nmos4_spectre"
"P3n P2qn" "NCSU_Analog_Parts_pmos4_spectre"
"Vin1v" ":1v"
"Vin2v" ":2v"
"Voutv" ":3v"
