HEADER
"PSFversion" "1.00"
"design" "(\"cse463_project\" \"7_1_mux_tgate_test\" \"schematic\" \"\")"
"simulator" "spectre"
"temperature" "27"
"host" ""
"date" "Apr 26 04:37:07 2016"
"title" ""
"analysisList" "()"
END
