HEADER
"PSFversion" "1.00"
"design" "(\"cse463_project\" \"bus_test\" \"schematic\" \"\")"
"simulator" "spectre"
"temperature" "27"
"host" ""
"date" "May 10 00:21:49 2016"
"title" ""
"analysisList" "()"
END
