HEADER
"PSFversion" "1.00"
"simulator" "spectre"
"version" "14.1.0.576.isr7"
"date" "12:21:54 AM, Tue May 10, 2016"
"design" "// Generated for: spectre"
"analysis type" "info.subckts"
"analysis name" "subckts"
"analysis description" "Circuit Information"
"xVecSorted" "unknown"
"tolerance.relative" 0.00100000
TYPE
"subckt" STRUCT(
"subckt_params" STRING *
"subckt_terminals" STRING *
) PROP(
"key" "sub"
)
VALUE
"IR_trigate" "subckt" (
""
"inv_in N0 N0B N1 N1B Out inh_inh_bn 0 vdd!"
)
"min_inv" "subckt" (
""
"In out 0 vdd!"
)
"cse463_project_3_1_mux_alt_schematic" "subckt" (
""
"Hold Load Out S0 S0B S1 S1B inh_inh_bn 0"
)
"d_flip_flop" "subckt" (
""
"D F1 F2 Q 0 vdd!"
)
"IR_reg" "subckt" (
""
"F1 F2 In0 In1 In2 In3 In4 In5 In6 In7 N0 N0B N1 N1B Out0 Out1 Out2 Out3 Out4 Out5 Out6 Out7 S0 S0B S1 S1B inh_inh_bn 0 vdd!"
)
"single_muxed_ff" "subckt" (
""
"F1 F2 Load Out S0 S0B S1 S1B inh_inh_bn 0 vdd!"
)
END
