HEADER
"PSFversion" "1.00"
"design" "(\"cse562\" \"test_cube\" \"schematic\" \"\")"
"simulator" "spectre"
"temperature" "27"
"host" ""
"date" "Nov  6 21:33:47 2015"
"title" ""
"analysisList" "()"
END
