HEADER
"PSFversion" "1.00"
"design" "(\"cse463_project\" \"8_bit_and_test\" \"schematic\" \"\")"
"simulator" "spectre"
"temperature" "27"
"host" ""
"date" "Apr 21 17:20:08 2016"
"title" ""
"analysisList" "()"
END
