HEADER
"PSFversion" "1.00"
"simulator" "spectre"
"version" "14.1.0.576.isr7"
"date" "5:20:12 PM, Thur Apr 21, 2016"
"design" "// Generated for: spectre"
"analysis type" "info.subckts"
"analysis name" "subckts"
"analysis description" "Circuit Information"
"xVecSorted" "unknown"
"tolerance.relative" 0.00100000
TYPE
"subckt" STRUCT(
"subckt_params" STRING *
"subckt_terminals" STRING *
) PROP(
"key" "sub"
)
VALUE
"cse463_project_8_bit_and_schematic" "subckt" (
""
"AC0 AC1 AC2 AC3 AC4 AC5 AC6 AC7 IN0 IN4 IN5 IN6 In1 In2 In3 In7 OUT0 OUT1 OUT2 OUT3 OUT4 OUT5 OUT6 OUT7 inh_inh_bn vdd! 0"
)
"min_and" "subckt" (
""
"A B Out inh_inh_bn vdd! 0"
)
END
