HEADER
"PSFversion" "1.00"
"Time Stamp" "Apr 21 17:20:08 2016"
TYPE
"variable" STRUCT(
"value" FLOAT DOUBLE
) PROP( "key" "element" )
VALUE
"temp" "variable" ( 27 ) PROP( )
END
