HEADER
"PSFversion" "1.00"
"P2n P1n P0n" "NCSU_Analog_Parts_pmos4_spectre"
"N2n N1n N0n" "NCSU_Analog_Parts_nmos4_spectre"
"V1n" "NCSU_Analog_Parts_vdc_spectre"
"I29n" "NCSU_Analog_Parts_idc_spectre"
