HEADER
"PSFversion" "1.00"
"design" "(\"cse562\" \"cube_test\" \"schematic\" \"\")"
"simulator" "spectre"
"temperature" "27"
"host" ""
"date" "Nov  2 09:52:09 2015"
"title" ""
"analysisList" "()"
END
