HEADER
"PSFversion" "1.00"
"Time Stamp" "Nov  2 09:52:09 2015"
TYPE
"variable" STRUCT(
"value" FLOAT DOUBLE
) PROP( "key" "element" )
VALUE
"temp" "variable" ( 27 ) PROP( )
END
