HEADER
"PSFversion" "1.00"
"M5n M4n M3n M2n M1n M0n" "NCSU_Analog_Parts_nmos_spectre"
"Holdv" ":1v"
"Loadv" ":2v"
"Outv" ":3v"
"S0v" ":4v"
"S0Bv" ":5v"
"S1v" ":6v"
"S1Bv" ":7v"
"[@inh_bn:%:gnd!]v" ":8v"
