HEADER
"PSFversion" "1.00"
"design" "(\"cse463_project\" \"ALU_test_with_ff\" \"schematic\" \"\")"
"simulator" "spectre"
"temperature" "27"
"host" ""
"date" "Apr 26 05:24:01 2016"
"title" ""
"analysisList" "()"
END
