HEADER
"PSFversion" "1.00"
"P3n P1n P0n" "NCSU_Analog_Parts_pmos4_spectre"
"N4n N2n N1n N0n" "NCSU_Analog_Parts_nmos4_spectre"
"V0n" "NCSU_Analog_Parts_vdc_spectre"
"I6n I0n" "NCSU_Analog_Parts_idc_spectre"
