HEADER
"PSFversion" "1.00"
"design" "(\"cse463_project\" \"drive_bus_test\" \"schematic\" \"\")"
"simulator" "spectre"
"temperature" "27"
"host" ""
"date" "May 11 19:42:59 2016"
"title" ""
"analysisList" "()"
END
