HEADER
"PSFversion" "1.00"
"simulator" "spectre"
"version" "14.1.0.576.isr7"
"date" "7:43:05 PM, Wed May 11, 2016"
"design" "// Generated for: spectre"
"analysis type" "info.subckts"
"analysis name" "subckts"
"analysis description" "Circuit Information"
"xVecSorted" "unknown"
"tolerance.relative" 0.00100000
TYPE
"subckt" STRUCT(
"subckt_params" STRING *
"subckt_terminals" STRING *
) PROP(
"key" "sub"
)
VALUE
"bus_top" "subckt" (
""
"AR_S0 AR_S0B AR_S1 AR_S1B DR_S0 DR_S0B DR_S1 DR_S1B F1 F2 IR_N0 IR_N0B IR_N1 IR_N1B IR_S0 IR_S0B IR_S1 IR_S1B Input_S0 Input_S0B Input_S1 Input_S1B Memory<0> Memory<1> Memory<2> Memory<3> Memory<4> Memory<5> Memory<6> Memory<7> OUTP_S0 OUTP_S0B OUTP_S1 OUTP_S1B PC_N0 PC_N0B PC_N1 PC_N1B PC_S0 PC_S0B PC_S1 PC_S1B vdd!"
)
"IR_reg" "subckt" (
""
"Control_Out0 Control_Out1 Control_Out5 Control_Out6 Control_Out7 F1 F2 In<0> In<1> In<2> In<3> In<4> In<5> In<6> In<7> N0 N0B N1 N1B Out<0> Out<1> Out<2> Out<3> Out<4> Out<5> Out<6> Out<7> S0 S0B S1 S1B"
)
END
