HEADER
"PSFversion" "1.00"
"Time Stamp" "May 11 19:42:59 2016"
TYPE
"variable" STRUCT(
"value" FLOAT DOUBLE
) PROP( "key" "element" )
VALUE
"temp" "variable" ( 27 ) PROP( )
END
