HEADER
"PSFversion" "1.00"
"I0n" "hw4_inv"
"V1n V0n" "NCSU_Analog_Parts_vpulse_spectre"
"C0n" "NCSU_Analog_Parts_cap_spectre"
