HEADER
"PSFversion" "1.00"
"N0n" "NCSU_Analog_Parts_nmos4_spectre"
"P0n" "NCSU_Analog_Parts_pmos4_spectre"
"Vinv" ":1v"
"Voutv" ":2v"
