HEADER
"PSFversion" "1.00"
"design" "(\"cse562\" \"mirror4\" \"schematic\" \"\")"
"simulator" "spectre"
"temperature" "27"
"host" ""
"date" "Nov  6 11:03:24 2015"
"title" ""
"analysisList" "()"
END
