HEADER
"PSFversion" "1.00"
"I0n" "proj1_opamp"
"V1n V0n" "NCSU_Analog_Parts_vdc_spectre"
"V2n" "NCSU_Analog_Parts_vpulse_spectre"
