HEADER
"PSFversion" "1.00"
"design" "(\"cse463_project\" \"8_bit_reg_v1_test\" \"schematic\" \"\")"
"simulator" "spectre"
"temperature" "27"
"host" ""
"date" "Apr 14 03:57:21 2016"
"title" ""
"analysisList" "()"
END
