HEADER
"PSFversion" "1.00"
"Time Stamp" "Apr 14 03:57:21 2016"
TYPE
"variable" STRUCT(
"value" FLOAT DOUBLE
) PROP( "key" "element" )
VALUE
"temp" "variable" ( 27 ) PROP( )
END
