HEADER
"PSFversion" "1.00"
"design" "(\"cse562\" \"poly_exper\" \"schematic\" \"\")"
"simulator" "spectre"
"temperature" "27"
"host" ""
"date" "Nov  9 15:08:01 2015"
"title" ""
"analysisList" "()"
END
