HEADER
"PSFversion" "1.00"
"design" "(\"563_final\" \"test_543\" \"schematic\" \"\")"
"simulator" "spectre"
"temperature" "27"
"host" ""
"date" "May  2 11:50:16 2016"
"title" ""
"analysisList" "()"
END
