HEADER
"PSFversion" "1.00"
"Time Stamp" "May  2 11:50:16 2016"
TYPE
"variable" STRUCT(
"value" FLOAT DOUBLE
) PROP( "key" "element" )
VALUE
"temp" "variable" ( 27 ) PROP( )
END
