HEADER
"PSFversion" "1.00"
"design" "(\"cse562\" \"trans_gate_latch\" \"schematic\" \"\")"
"simulator" "spectre"
"temperature" "27"
"host" ""
"date" "Dec 10 22:49:48 2015"
"title" ""
"analysisList" "()"
END
