HEADER
"PSFversion" "1.00"
"I25n I24n I23n I28n I29n I19n I20n I21n I22n I27n I31n I30n I32n" "min_tgate"
"Adderv" ":1v"
"DM_AC_ANDv" ":2v"
"DM_AC_ORv" ":3v"
"DR_AC_XORv" ":4v"
"DR_COMv" ":5v"
"DR_directv" ":6v"
"INPR_directv" ":7v"
"Outv" ":8v"
"S0v" ":9v"
"S0Bv" ":10v"
"S1v" ":11v"
"S1Bv" ":12v"
"S2v" ":13v"
"S2Bv" ":14v"
"[@inh_bn:%:gnd!]v" ":15v"
