HEADER
"PSFversion" "1.00"
"__NEXT_FILE__" "cse463_project_7_1_mux_tgate_test_schematic"
