HEADER
"PSFversion" "1.00"
"N8n N7n N2n N0n N3n N1n" "NCSU_Analog_Parts_nmos4_spectre"
"I16n I0n" "NCSU_Analog_Parts_idc_spectre"
"R1n R0n" "NCSU_Analog_Parts_res_spectre"
"V5n V0n" "NCSU_Analog_Parts_vdc_spectre"
"P9n P8n P7n P6n P5n P4n" "NCSU_Analog_Parts_pmos4_spectre"
