HEADER
"PSFversion" "1.00"
"I0n" "cse463_project_8_bit_ALU_schematic"
"I1n" "cse463_project_8bit_AC_schematic"
"ACS0v" ":1v"
"ACS0Bv" ":2v"
"ACS1v" ":3v"
"ACS1Bv" ":4v"
"ACS2v" ":5v"
"ACS2Bv" ":6v"
"DR_In<0>v" ":7v"
"DR_In<1>v" ":8v"
"DR_In<2>v" ":9v"
"DR_In<3>v" ":10v"
"DR_In<4>v" ":11v"
"DR_In<5>v" ":12v"
"DR_In<6>v" ":13v"
"DR_In<7>v" ":14v"
"F1v" ":15v"
"F2v" ":16v"
"Input_In<0>v" ":17v"
"Input_In<1>v" ":18v"
"Input_In<2>v" ":19v"
"Input_In<3>v" ":20v"
"Input_In<4>v" ":21v"
"Input_In<5>v" ":22v"
"Input_In<6>v" ":23v"
"Input_In<7>v" ":24v"
"N0v" ":25v"
"N0Bv" ":26v"
"N1v" ":27v"
"N1Bv" ":28v"
"Out<0>v" ":29v"
"Out<1>v" ":30v"
"Out<2>v" ":31v"
"Out<3>v" ":32v"
"Out<4>v" ":33v"
"Out<5>v" ":34v"
"Out<6>v" ":35v"
"Out<7>v" ":36v"
"S0v" ":37v"
"S0Bv" ":38v"
"S1v" ":39v"
"S1Bv" ":40v"
"S2v" ":41v"
"S2Bv" ":42v"
"[@inh_bn:%:gnd!]v" ":43v"
