HEADER
"PSFversion" "1.00"
"I60n I61n I62n I63n I64n" "single_muxed_ff"
"F1v" ":1v"
"F2v" ":2v"
"In<0>v" ":3v"
"In<1>v" ":4v"
"In<2>v" ":5v"
"In<3>v" ":6v"
"In<4>v" ":7v"
"Out<0>v" ":8v"
"Out<1>v" ":9v"
"Out<2>v" ":10v"
"Out<3>v" ":11v"
"Out<4>v" ":12v"
"S0v" ":13v"
"S0Bv" ":14v"
"S1v" ":15v"
"S1Bv" ":16v"
"[@inh_bn:%:gnd!]v" ":17v"
