HEADER
"PSFversion" "1.00"
"M0n" "NCSU_Analog_Parts_pmos_spectre"
"I1n I2n" "min_inv"
"M5n" "NCSU_Analog_Parts_nmos_spectre"
"F1v" ":1v"
"F2v" ":2v"
"Inv" ":3v"
"Outv" ":4v"
"[@inh_bn:%:gnd!]v" ":5v"
