HEADER
"PSFversion" "1.00"
"I14n" "cse463_project_8_bit_bus_inverter_schematic"
"ACn" "ALU_to_AC"
"ARn" "AR_reg"
"I20n DRn OUTPn" "cse463_project_8_bit_reg_v1_schematic"
"I22n" "PC_5_bit_with_trigate"
"I23n" "IR_reg_schematic"
"AR_S0v" ":1v"
"AR_S0Bv" ":2v"
"AR_S1v" ":3v"
"AR_S1Bv" ":4v"
"DR_S0v" ":5v"
"DR_S0Bv" ":6v"
"DR_S1v" ":7v"
"DR_S1Bv" ":8v"
"F1v" ":9v"
"F2v" ":10v"
"IR_N0v" ":11v"
"IR_N0Bv" ":12v"
"IR_N1v" ":13v"
"IR_N1Bv" ":14v"
"IR_S0v" ":15v"
"IR_S0Bv" ":16v"
"IR_S1v" ":17v"
"IR_S1Bv" ":18v"
"Input_S0v" ":19v"
"Input_S0Bv" ":20v"
"Input_S1v" ":21v"
"Input_S1Bv" ":22v"
"Memory<0>v" ":23v"
"Memory<1>v" ":24v"
"Memory<2>v" ":25v"
"Memory<3>v" ":26v"
"Memory<4>v" ":27v"
"Memory<5>v" ":28v"
"Memory<6>v" ":29v"
"Memory<7>v" ":30v"
"OUTP_S0v" ":31v"
"OUTP_S0Bv" ":32v"
"OUTP_S1v" ":33v"
"OUTP_S1Bv" ":34v"
"PC_N0v" ":35v"
"PC_N0Bv" ":36v"
"PC_N1v" ":37v"
"PC_N1Bv" ":38v"
"PC_S0v" ":39v"
"PC_S0Bv" ":40v"
"PC_S1v" ":41v"
"PC_S1Bv" ":42v"
"[@inh_bn:%:gnd!]v" ":43v"
