HEADER
"PSFversion" "1.00"
"+1754n +1753n +1752n +1751n +1750n +1749n +1748n +1747n +1746n +1745n +1726n +1725n +1724n +1723n +1722n +1721n +1720n +1719n +1718n +1717n +1716n +1715n +1714n +1713n +1712n +1711n +1575n +1574n +1573n +1572n +1571n +1570n +1569n +1568n +1567n +1566n +1565n +1564n +1563n +1562n +1561n +1560n" "NCSU_Analog_Parts_pmos4_spectre"
"+1303n +1302n +1301n +1300n +1299n +1298n +1297n +1296n +1295n +1294n +1275n +1274n +1273n +1272n +1271n +1270n +1269n +1268n +1257n +1256n +1255n +1254n +1253n +1252n +1251n +1250n +839n +838n +837n +836n +835n +834n +833n +832n +831n +830n +829n +828n +827n +826n +825n +824n +1293n +1292n +1291n +1290n +1289n +1288n +1287n +1286n +1285n +1284n +1283n +1282n +1281n +1280n +1279n +1278n +1277n +1276n +1239n +1238n +1237n +1236n +1235n +1234n +1233n +1232n +1231n +1230n +1229n +1228n +1227n +1226n +1225n +1224n +1223n +1222n +1221n +1220n +1219n +1218n +1217n +1216n +1215n +1214n +1213n +1212n +1211n +1210n +1209n +1208n +1207n +1206n +1205n +1204n +1203n +1202n +1201n +1200n +1199n +1198n +1197n +1196n +1195n +1194n +1193n +1192n +1191n +1190n +1189n +1188n +1187n +1186n +1185n +1184n +1183n +1182n +1181n +1180n +1179n +1178n +1177n +1176n +1175n +1174n +1173n +1172n +1171n +1170n +1169n +1168n +1167n +1166n +1165n +1164n +1163n +1162n +1161n +1160n +1159n +1158n +1157n +1156n +1155n +1154n +1153n +1152n +1151n +1150n +1149n +1148n +1147n +1146n +1145n +1144n +1143n +1142n +1141n +1140n +1139n +1138n +1137n +1136n +1135n +1134n +1133n +1132n +1131n +1130n +1129n +1128n +1127n +1126n +1125n +1124n +1123n +1122n +1121n +1120n +1119n +1118n +1117n +1116n +1115n +1114n +1113n +1112n +1111n +1110n +1109n +1108n +1107n +1106n +1105n +1104n +1103n +1102n +1101n +1100n +1099n +1098n +1097n +1096n +1095n +1094n +1093n +1092n +1091n +1090n +1089n +1088n +1087n +1086n +1085n +1084n +1083n +1082n +1081n +1080n +1079n +1078n +1077n +1076n +1075n +1074n +1073n +1072n +1071n +1070n +1069n +1068n +1067n +1066n +1065n +1064n +1063n +1062n +1061n +1060n +1059n +1058n +1005n +1004n +1003n +1002n +1001n +1000n +999n +998n +997n +996n +995n +994n +993n +992n +991n +990n +989n +988n +987n +986n +985n +984n +983n +982n +981n +980n +979n +978n +977n +976n +975n +974n +973n +972n +971n +970n +969n +968n +967n +966n +965n +964n +963n +962n +961n +960n +959n +958n +957n +956n +955n +954n +953n +952n +951n +950n +949n +948n +947n +946n +945n +944n +943n +942n +941n +940n +939n +938n +937n +936n +935n +934n +933n +932n +931n +930n +929n +928n +927n +926n +925n +924n +923n +922n +921n +920n +919n +918n +917n +916n +915n +914n +913n +912n +911n +910n +909n +908n +907n +906n +905n +904n +903n +902n +901n +900n +899n +898n +897n +896n +895n +894n +893n +892n +891n +890n +889n +888n +887n +886n +885n +884n +883n +882n +881n +880n +879n +878n +877n +876n +875n +874n +873n +872n +871n +870n +869n +868n +867n +866n +865n +864n +863n +862n +861n +860n +859n +858n +857n +856n +855n +854n +853n +852n +851n +850n +849n +848n +847n +846n +845n +844n +843n +842n +841n +840n +823n +822n +821n +820n +819n +818n +817n +816n +815n +814n +813n +812n +811n +810n +809n +808n +807n +806n +805n +804n +803n +802n +801n +800n +799n +798n +797n +796n +795n +794n +793n +792n +791n +790n +789n +788n +787n +786n +785n +784n +783n +782n +781n +780n +779n +778n +777n +776n +775n +774n +773n +772n +771n +770n +769n +768n +767n +766n +765n +764n +763n +762n +761n +760n +740n +739n +738n +737n +736n +735n +734n +733n +732n +731n +730n +729n +728n +727n +726n +725n +724n +723n +722n +721n +720n +719n +718n +717n +716n +715n +714n +713n +712n +711n +710n +709n +708n +707n +706n +705n +704n +703n +702n +701n +700n +699n +698n +697n +696n +695n +694n +693n +692n +691n +690n +689n +688n +687n +686n +685n +684n +683n +682n +681n +680n +679n +678n +677n +676n +675n +674n +673n +672n +671n +670n +669n +668n +667n +666n +665n +664n +663n +662n +661n +659n +658n +657n +656n +655n +654n +653n +652n +651n +650n +649n +648n +647n +646n +645n +644n +625n +624n +623n +622n +621n +620n +619n +618n +617n +616n +615n +614n +613n +612n +611n +610n +609n +608n +607n +606n +605n +604n +603n +602n +601n +600n +599n +598n +597n +596n +595n +594n +593n +592n +591n +590n +589n +588n +587n +586n +584n +583n +582n +581n +580n +579n +578n +577n +576n +575n +574n +573n +572n +571n +570n +569n +568n +567n +566n +565n +564n +563n +562n +561n +560n +559n +558n +557n +556n +555n +554n +553n +552n +551n +550n +549n +548n +547n +546n +545n +544n +543n +542n +541n +540n +539n +538n +537n +536n +535n +534n +533n +532n +531n +530n +529n +528n +527n +526n +525n +524n +523n +522n +521n +520n +519n +518n +517n +516n +515n +514n +513n +512n +511n +510n +509n +508n +507n +506n +505n +501n +500n +499n +498n +497n +496n +495n +494n +493n +492n +491n +490n +489n +488n +487n +486n +485n +484n +483n +482n +481n +480n +479n +478n +477n +476n +475n +474n +473n +472n +471n +470n +469n +468n +467n +466n +465n +464n +463n +462n +461n +460n +459n +458n +457n +456n +455n +454n +453n +452n +451n +450n +449n +448n +447n +446n +444n +443n +442n +441n +440n +439n +438n +437n +436n +435n +434n +433n +432n +431n +430n +429n +428n +427n +426n +425n +424n +423n +422n +421n +420n +419n +418n +417n +416n +415n +414n +413n +412n +411n +410n +409n +408n +407n +406n +405n +404n +403n +402n +401n +400n +399n +398n +397n +396n +395n +394n +393n +392n +391n +390n +389n +387n +386n +385n +384n +383n +382n +381n +380n +379n +378n +377n +376n +375n +374n +373n +372n +371n +370n +369n +368n +367n +366n +365n +364n +363n +362n +361n +360n +359n +358n +357n +356n +355n +354n +353n +352n +351n +350n +349n +348n +347n +346n +345n +344n +343n +342n +341n +340n +339n +338n +337n +336n +335n +334n +333n +332n +322n +321n +320n +319n +318n +317n +316n +315n +314n +313n +312n +311n +310n +309n +308n +307n +306n +305n +304n +303n +302n +301n +300n +299n +289n +288n +287n +286n +285n +284n +283n +282n +281n +280n +279n +278n +277n +276n +275n +274n +273n +272n +271n +270n +269n +268n +267n +266n +265n +264n +263n +262n +261n +260n +259n +258n +255n +254n +253n +252n +251n +250n +249n +248n +247n +246n +245n +244n +243n +242n +241n +240n +238n +237n +236n +235n +234n +233n +232n +231n +230n +229n +228n +227n +226n +225n +224n +223n +221n +220n +219n +218n +217n +216n +215n +214n +213n +212n +211n +210n +209n +208n +207n +206n +205n +204n +203n +202n +201n +200n +199n +198n +189n +188n +187n +186n +185n +184n +183n +182n +181n +180n +179n +178n +177n +176n +175n +174n +173n +172n +171n +170n +169n +168n +167n +166n +165n +164n +163n +162n +161n +160n +159n +158n +156n +155n +154n +153n +152n +151n +150n +149n +147n +146n +145n +144n +143n +142n +141n +140n +139n +138n +137n +136n +135n +134n +133n +132n +130n +129n +128n +127n +126n +125n +124n +123n +122n +121n +120n +119n +118n +117n +116n +115n +111n +110n +109n +108n +107n +106n +105n +104n +103n +102n +101n +100n +99n +98n +97n +96n +95n +94n +93n +92n +91n +90n +89n +88n +87n +86n +85n +84n +83n +82n +81n +80n +79n +78n +77n +76n +75n +74n +73n +72n +71n +70n +69n +68n +67n +66n +65n +64n +47n +46n +45n +44n +43n +42n +41n +40n +39n +38n +37n +36n +35n +34n +33n +32n +31n +30n +29n +28n +27n +26n +25n +24n +23n +22n +21n +20n +19n +18n +17n +16n +15n +14n +13n +12n +11n +10n +9n +8n +7n +6n +5n +4n +3n +2n +1n +0n +1267n +1266n +1265n +1264n +1263n +1262n +1261n +1260n +1259n +1258n +1249n +1248n +1247n +1246n +1245n +1244n +1243n +1242n +1241n +1240n +1057n +1056n +1055n +1054n +1053n +1052n +1051n +1050n +1049n +1048n +1047n +1046n +1045n +1044n +1043n +1042n +1041n +1040n +1039n +1038n +1037n +1036n +1035n +1034n +1033n +1032n +1031n +1030n +1029n +1028n +1027n +1026n +1025n +1024n +1023n +1022n +1021n +1020n +1019n +1018n +1017n +1016n +1015n +1014n +1013n +1012n +1011n +1010n +1009n +1008n +1007n +1006n +759n +757n +756n +755n +754n +753n +752n +751n +750n +749n +748n +747n +746n +745n +744n +743n +742n +741n +660n +643n +642n +641n +640n +639n +638n +637n +636n +635n +634n +633n +632n +631n +630n +629n +628n +626n +585n +503n +502n +388n +331n +330n +329n +328n +327n +326n +325n +324n +323n +298n +297n +296n +295n +294n +293n +292n +291n +257n +256n +222n +197n +196n +195n +194n +193n +192n +191n +190n +157n +131n +114n +112n +63n +62n +61n +60n +59n +58n +57n +56n +55n +54n +53n +52n +51n +50n +49n +48n +758n +627n +504n +445n +290n +239n +148n +113n" "NCSU_Analog_Parts_nmos4_spectre"
"+1744n +1743n +1742n +1741n +1740n +1739n +1738n +1737n +1736n +1735n +1705n +1704n +1703n +1702n +1701n +1700n +1699n +1698n +1697n +1696n +1695n +1694n +1693n +1692n +1691n +1690n +1689n +1688n +1687n +1686n +1685n +1684n +1683n +1682n +1681n +1680n +1679n +1678n +1677n +1676n +1675n +1674n +1673n +1672n +1671n +1670n +1669n +1668n +1667n +1666n +1665n +1664n +1663n +1662n +1661n +1660n +1659n +1658n +1657n +1656n +1655n +1654n +1653n +1652n +1651n +1650n +1649n +1648n +1647n +1646n +1645n +1644n +1643n +1642n +1641n +1640n +1639n +1638n +1637n +1636n +1635n +1634n +1633n +1632n +1631n +1630n +1629n +1628n +1627n +1626n +1625n +1624n +1623n +1622n +1621n +1620n +1619n +1618n +1617n +1616n +1615n +1614n +1613n +1612n +1611n +1610n +1609n +1608n +1607n +1606n +1605n +1604n +1603n +1602n +1601n +1600n +1599n +1598n +1597n +1596n +1595n +1594n +1593n +1592n +1591n +1590n +1589n +1588n +1587n +1586n +1585n +1584n +1583n +1582n +1581n +1580n +1579n +1578n +1577n +1576n +1557n +1556n +1555n +1554n +1553n +1552n +1551n +1550n +1549n +1548n +1547n +1546n +1545n +1544n +1543n +1542n +1540n +1539n +1538n +1537n +1536n +1535n +1534n +1533n +1532n +1531n +1530n +1529n +1528n +1527n +1526n +1525n +1524n +1523n +1522n +1521n +1520n +1519n +1518n +1517n +1516n +1515n +1514n +1513n +1512n +1511n +1510n +1509n +1506n +1505n +1504n +1503n +1502n +1501n +1500n +1499n +1498n +1497n +1496n +1495n +1494n +1493n +1492n +1491n +1490n +1489n +1488n +1487n +1486n +1485n +1484n +1483n +1482n +1481n +1480n +1479n +1478n +1477n +1476n +1475n +1457n +1456n +1455n +1454n +1453n +1452n +1451n +1450n +1440n +1439n +1438n +1437n +1436n +1435n +1434n +1433n +1432n +1431n +1430n +1429n +1428n +1427n +1426n +1425n +1406n +1405n +1404n +1403n +1402n +1401n +1400n +1399n +1398n +1397n +1396n +1395n +1394n +1393n +1392n +1391n +1389n +1388n +1387n +1386n +1385n +1384n +1383n +1382n +1381n +1380n +1379n +1378n +1377n +1376n +1375n +1374n +1365n +1364n +1363n +1362n +1361n +1360n +1359n +1358n +1335n +1334n +1333n +1332n +1331n +1330n +1329n +1328n +1327n +1326n +1325n +1324n +1323n +1322n +1321n +1320n +1319n +1318n +1317n +1316n +1315n +1314n +1313n +1312n +1311n +1310n +1309n +1308n +1307n +1306n +1305n +1304n +1734n +1733n +1732n +1731n +1730n +1729n +1728n +1727n +1559n +1541n +1508n +1474n +1473n +1471n +1470n +1468n +1467n +1465n +1464n +1463n +1462n +1461n +1460n +1459n +1458n +1441n +1424n +1423n +1422n +1421n +1420n +1419n +1418n +1417n +1416n +1390n +1357n +1355n +1354n +1353n +1352n +1351n +1350n +1349n +1348n +1347n +1338n +1336n +1710n +1709n +1708n +1707n +1706n +1558n +1507n +1472n +1469n +1466n +1415n +1356n +1337n +1449n +1448n +1447n +1446n +1445n +1444n +1443n +1442n +1414n +1413n +1412n +1411n +1410n +1409n +1408n +1407n +1373n +1372n +1371n +1370n +1369n +1368n +1367n +1366n +1346n +1345n +1344n +1343n +1342n +1341n +1340n +1339n" "NCSU_Analog_Parts_pmos4_spectre"
"AR_S0v" ":1v"
"AR_S0Bv" ":2v"
"AR_S1v" ":3v"
"AR_S1Bv" ":4v"
"DR_S0v" ":5v"
"DR_S0Bv" ":6v"
"DR_S1v" ":7v"
"DR_S1Bv" ":8v"
"F1v" ":9v"
"F2v" ":10v"
"IR_N0v" ":11v"
"IR_N0Bv" ":12v"
"IR_N1v" ":13v"
"IR_N1Bv" ":14v"
"IR_S0v" ":15v"
"IR_S0Bv" ":16v"
"IR_S1v" ":17v"
"IR_S1Bv" ":18v"
"Input_S0v" ":19v"
"Input_S0Bv" ":20v"
"Input_S1v" ":21v"
"Input_S1Bv" ":22v"
"Memory<0>v" ":23v"
"Memory<1>v" ":24v"
"Memory<2>v" ":25v"
"Memory<3>v" ":26v"
"Memory<4>v" ":27v"
"Memory<5>v" ":28v"
"Memory<6>v" ":29v"
"Memory<7>v" ":30v"
"OUTP_S0v" ":31v"
"OUTP_S0Bv" ":32v"
"OUTP_S1v" ":33v"
"OUTP_S1Bv" ":34v"
"PC_N0v" ":35v"
"PC_N0Bv" ":36v"
"PC_N1v" ":37v"
"PC_N1Bv" ":38v"
"PC_S0v" ":39v"
"PC_S0Bv" ":40v"
"PC_S1v" ":41v"
"PC_S1Bv" ":42v"
