HEADER
"PSFversion" "1.00"
"M32n M12n M10n M19n M30n M31n M29n M33n M3n M2n M1n M0n M18n M17n M16n" "NCSU_Analog_Parts_nmos_spectre"
"Holdv" ":1v"
"Loadv" ":2v"
"Outv" ":3v"
"S0v" ":4v"
"S0Bv" ":5v"
"S1v" ":6v"
"S1Bv" ":7v"
"S2v" ":8v"
"S2Bv" ":9v"
"ShiftLv" ":10v"
"ShiftRv" ":11v"
"[@inh_bn:%:gnd!]v" ":12v"
