HEADER
"PSFversion" "1.00"
"I9n I8n I7n I6n I5n I4n I3n I0n" "cse463_project_1_bit_ALU_schematic"
"AC_In0v" ":1v"
"AC_In1v" ":2v"
"AC_In2v" ":3v"
"AC_In3v" ":4v"
"AC_In4v" ":5v"
"AC_In5v" ":6v"
"AC_In6v" ":7v"
"AC_In7v" ":8v"
"DR_In0v" ":9v"
"DR_In1v" ":10v"
"DR_In2v" ":11v"
"DR_In3v" ":12v"
"DR_In4v" ":13v"
"DR_In5v" ":14v"
"DR_In6v" ":15v"
"DR_In7v" ":16v"
"Input_In0v" ":17v"
"Input_In1v" ":18v"
"Input_In2v" ":19v"
"Input_In3v" ":20v"
"Input_In4v" ":21v"
"Input_In5v" ":22v"
"Input_In6v" ":23v"
"Input_In7v" ":24v"
"Out0v" ":25v"
"Out1v" ":26v"
"Out2v" ":27v"
"Out3v" ":28v"
"Out4v" ":29v"
"Out5v" ":30v"
"Out6v" ":31v"
"Out7v" ":32v"
"S0v" ":33v"
"S0Bv" ":34v"
"S1v" ":35v"
"S1Bv" ":36v"
"S2v" ":37v"
"S2Bv" ":38v"
"[@inh_bn:%:gnd!]v" ":39v"
