HEADER
"PSFversion" "1.00"
"I7n I6n I5n I4n I3n I2n I1n I0n" "bus_inverter"
"F1v" ":1v"
"F2v" ":2v"
"In<0>v" ":3v"
"In<1>v" ":4v"
"In<2>v" ":5v"
"In<3>v" ":6v"
"In<4>v" ":7v"
"In<5>v" ":8v"
"In<6>v" ":9v"
"In<7>v" ":10v"
"Out0v" ":11v"
"Out1v" ":12v"
"Out2v" ":13v"
"Out3v" ":14v"
"Out4v" ":15v"
"Out5v" ":16v"
"Out6v" ":17v"
"Out7v" ":18v"
"[@inh_bn:%:gnd!]v" ":19v"
