HEADER
"PSFversion" "1.00"
"I32n I31n I30n I29n I28n I27n I26n I25n" "cse463_project_8bit_reg_AC_1_schematic"
"I42n I41n I40n I39n I38n I37n I36n I35n" "AC_trigate"
"ALU_Out0v" ":1v"
"ALU_Out1v" ":2v"
"ALU_Out2v" ":3v"
"ALU_Out3v" ":4v"
"ALU_Out4v" ":5v"
"ALU_Out5v" ":6v"
"ALU_Out6v" ":7v"
"ALU_Out7v" ":8v"
"F1v" ":9v"
"F2v" ":10v"
"In0v" ":11v"
"In1v" ":12v"
"In2v" ":13v"
"In3v" ":14v"
"In4v" ":15v"
"In5v" ":16v"
"In6v" ":17v"
"In7v" ":18v"
"N0v" ":19v"
"N0Bv" ":20v"
"N1v" ":21v"
"N1Bv" ":22v"
"Out0v" ":23v"
"Out1v" ":24v"
"Out2v" ":25v"
"Out3v" ":26v"
"Out4v" ":27v"
"Out5v" ":28v"
"Out6v" ":29v"
"Out7v" ":30v"
"S0v" ":31v"
"S0Bv" ":32v"
"S1v" ":33v"
"S1Bv" ":34v"
"S2v" ":35v"
"S2Bv" ":36v"
"[@inh_bn:%:gnd!]v" ":37v"
