HEADER
"PSFversion" "1.00"
"I0n" "cse463_project_7_1_mux_alt_schematic"
"I1n" "Adder_2"
"I6n I2n" "min_inv"
"I3n" "min_xor2"
"I4n" "min_and"
"I5n" "min_or"
"AC_Inv" ":1v"
"CarryOutv" ":2v"
"Carry_Inv" ":3v"
"DR_Inv" ":4v"
"Input_Inv" ":5v"
"Outv" ":6v"
"S0v" ":7v"
"S0Bv" ":8v"
"S1v" ":9v"
"S1Bv" ":10v"
"S2v" ":11v"
"S2Bv" ":12v"
"[@inh_bn:%:gnd!]v" ":13v"
