HEADER
"PSFversion" "1.00"
"I60n I64n I61n I62n I67n I65n I66n I63n" "single_muxed_ff"
"F1v" ":1v"
"F2v" ":2v"
"In<0>v" ":3v"
"In<1>v" ":4v"
"In<2>v" ":5v"
"In<3>v" ":6v"
"In<4>v" ":7v"
"In<5>v" ":8v"
"In<6>v" ":9v"
"In<7>v" ":10v"
"Out<0>v" ":11v"
"Out<1>v" ":12v"
"Out<2>v" ":13v"
"Out<3>v" ":14v"
"Out<4>v" ":15v"
"Out<5>v" ":16v"
"Out<6>v" ":17v"
"Out<7>v" ":18v"
"S0v" ":19v"
"S0Bv" ":20v"
"S1v" ":21v"
"S1Bv" ":22v"
"[@inh_bn:%:gnd!]v" ":23v"
