HEADER
"PSFversion" "1.00"
"M26n M25n M32n M24n M13n M12n M28n M10n M27n M19n M30n M31n M29n M33n M3n M2n M1n M0n M18n M17n M16n" "NCSU_Analog_Parts_nmos_spectre"
"Adderv" ":1v"
"DM_AC_ANDv" ":2v"
"DM_AC_ORv" ":3v"
"DR_AC_XORv" ":4v"
"DR_COMv" ":5v"
"DR_directv" ":6v"
"INPR_directv" ":7v"
"Outv" ":8v"
"S0v" ":9v"
"S0Bv" ":10v"
"S1v" ":11v"
"S1Bv" ":12v"
"S2v" ":13v"
"S2Bv" ":14v"
"[@inh_bn:%:gnd!]v" ":15v"
