HEADER
"PSFversion" "1.00"
"I6n" "cse463_project_5_1_mux_schematic"
"I7n" "d_flip_flop"
"F1v" ":1v"
"F2v" ":2v"
"Loadv" ":3v"
"Outv" ":4v"
"S0v" ":5v"
"S0Bv" ":6v"
"S1v" ":7v"
"S1Bv" ":8v"
"S2v" ":9v"
"S2Bv" ":10v"
"ShftLv" ":11v"
"ShftRv" ":12v"
"[@inh_bn:%:gnd!]v" ":13v"
