HEADER
"PSFversion" "1.00"
"M2n M3n" "NCSU_Analog_Parts_pmos_spectre"
"I11n I12n" "min_inv"
"M0n M1n" "NCSU_Analog_Parts_nmos_spectre"
"I10n" "min_xor2"
"Carryv" ":1v"
"Incv" ":2v"
"Otherv" ":3v"
"Regv" ":4v"
"[@inh_bn:%:gnd!]v" ":5v"
