HEADER
"PSFversion" "1.00"
"I90n I91n I92n I93n I94n I88n I87n I89n" "IR_trigate"
"I60n I64n I61n I62n I67n I65n I66n I63n" "single_muxed_ff"
"Control_Out0v" ":1v"
"Control_Out1v" ":2v"
"Control_Out5v" ":3v"
"Control_Out6v" ":4v"
"Control_Out7v" ":5v"
"F1v" ":6v"
"F2v" ":7v"
"In<0>v" ":8v"
"In<1>v" ":9v"
"In<2>v" ":10v"
"In<3>v" ":11v"
"In<4>v" ":12v"
"In<5>v" ":13v"
"In<6>v" ":14v"
"In<7>v" ":15v"
"N0v" ":16v"
"N0Bv" ":17v"
"N1v" ":18v"
"N1Bv" ":19v"
"Out<0>v" ":20v"
"Out<1>v" ":21v"
"Out<2>v" ":22v"
"Out<3>v" ":23v"
"Out<4>v" ":24v"
"Out<5>v" ":25v"
"Out<6>v" ":26v"
"Out<7>v" ":27v"
"S0v" ":28v"
"S0Bv" ":29v"
"S1v" ":30v"
"S1Bv" ":31v"
"[@inh_bn:%:gnd!]v" ":32v"
