HEADER
"PSFversion" "1.00"
"+207n +206n +205n +204n +203n +202n +201n +200n +199n +198n +197n +196n +195n +194n +193n +192n" "NCSU_Analog_Parts_pmos4_spectre"
"+143n +142n +141n +140n +139n +138n +137n +136n +135n +134n +133n +132n +131n +130n +129n +128n +127n +126n +125n +124n +123n +122n +121n +120n +119n +118n +117n +116n +115n +114n +113n +112n +111n +110n +109n +108n +107n +106n +105n +104n +103n +102n +101n +100n +99n +98n +97n +96n +95n +94n +93n +92n +91n +90n +89n +88n +87n +86n +85n +84n +83n +82n +81n +80n +79n +78n +77n +76n +75n +74n +73n +72n +71n +70n +69n +68n +67n +66n +65n +64n +47n +46n +45n +44n +43n +42n +41n +40n +39n +38n +37n +36n +35n +34n +33n +32n +31n +30n +29n +28n +27n +26n +25n +24n +23n +22n +21n +20n +19n +18n +17n +16n +15n +14n +13n +12n +11n +10n +9n +8n +7n +6n +5n +4n +3n +2n +1n +0n +63n +62n +61n +60n +59n +58n +57n +56n +55n +54n +53n +52n +51n +50n +49n +48n" "NCSU_Analog_Parts_nmos4_spectre"
"+191n +190n +189n +188n +187n +186n +185n +184n +183n +182n +181n +180n +179n +178n +177n +176n +175n +174n +173n +172n +171n +170n +169n +168n +167n +166n +165n +164n +163n +162n +161n +160n +159n +158n +157n +156n +155n +154n +153n +152n +151n +150n +149n +148n +147n +146n +145n +144n" "NCSU_Analog_Parts_pmos4_spectre"
"Control_Out0v" ":1v"
"Control_Out1v" ":2v"
"Control_Out5v" ":3v"
"Control_Out6v" ":4v"
"Control_Out7v" ":5v"
"F1v" ":6v"
"F2v" ":7v"
"In<0>v" ":8v"
"In<1>v" ":9v"
"In<2>v" ":10v"
"In<3>v" ":11v"
"In<4>v" ":12v"
"In<5>v" ":13v"
"In<6>v" ":14v"
"In<7>v" ":15v"
"N0v" ":16v"
"N0Bv" ":17v"
"N1v" ":18v"
"N1Bv" ":19v"
"Out<0>v" ":20v"
"Out<1>v" ":21v"
"Out<2>v" ":22v"
"Out<3>v" ":23v"
"Out<4>v" ":24v"
"Out<5>v" ":25v"
"Out<6>v" ":26v"
"Out<7>v" ":27v"
"S0v" ":28v"
"S0Bv" ":29v"
"S1v" ":30v"
"S1Bv" ":31v"
