HEADER
"PSFversion" "1.00"
"M1n" "NCSU_Analog_Parts_pmos_spectre"
"M7n M6n M5n M4n" "NCSU_Analog_Parts_nmos_spectre"
"Av" ":1v"
"A'v" ":2v"
"Bv" ":3v"
"B'v" ":4v"
"Outv" ":5v"
"[@inh_bn:%:gnd!]v" ":6v"
