HEADER
"PSFversion" "1.00"
"I0n" "cse463_project_4_1_mux_schematic"
"I1n" "d_flip_flop"
"I2n" "half_adder"
"CarryInv" ":1v"
"CarryOutv" ":2v"
"F1v" ":3v"
"F2v" ":4v"
"Inv" ":5v"
"Outv" ":6v"
"S0v" ":7v"
"S0Bv" ":8v"
"S1v" ":9v"
"S1Bv" ":10v"
"[@inh_bn:%:gnd!]v" ":11v"
