HEADER
"PSFversion" "1.00"
"I3n I2n I1n I0n" "PC_1_bit"
"I9n" "PC_last_bit"
"F1v" ":1v"
"F2v" ":2v"
"In0v" ":3v"
"In1v" ":4v"
"In2v" ":5v"
"In3v" ":6v"
"In4v" ":7v"
"Out0v" ":8v"
"Out1v" ":9v"
"Out2v" ":10v"
"Out3v" ":11v"
"Out4v" ":12v"
"S0v" ":13v"
"S0Bv" ":14v"
"S1v" ":15v"
"S1Bv" ":16v"
"[@inh_bn:%:gnd!]v" ":17v"
