HEADER
"PSFversion" "1.00"
"I0n" "cse463_project_4_1_mux_schematic"
"I1n" "d_flip_flop"
"I5n I4n" "min_inv"
"I6n" "min_xor2"
"CarryInv" ":1v"
"F1v" ":2v"
"F2v" ":3v"
"Inv" ":4v"
"Outv" ":5v"
"S0v" ":6v"
"S0Bv" ":7v"
"S1v" ":8v"
"S1Bv" ":9v"
"[@inh_bn:%:gnd!]v" ":10v"
