HEADER
"PSFversion" "1.00"
"M5n M6n" "NCSU_Analog_Parts_nmos_spectre"
"I1n I2n" "min_inv"
"M1n M0n" "NCSU_Analog_Parts_pmos_spectre"
"Inv" ":1v"
"N0v" ":2v"
"N0Bv" ":3v"
"N1v" ":4v"
"N1Bv" ":5v"
"Outv" ":6v"
"[@inh_bn:%:gnd!]v" ":7v"
