HEADER
"PSFversion" "1.00"
"I0n" "d_flip_flop"
"I6n" "cse463_project_3_1_mux_alt_schematic"
"F1v" ":1v"
"F2v" ":2v"
"Loadv" ":3v"
"Outv" ":4v"
"S0v" ":5v"
"S0Bv" ":6v"
"S1v" ":7v"
"S1Bv" ":8v"
"[@inh_bn:%:gnd!]v" ":9v"
