HEADER
"PSFversion" "1.00"
"design" "(\"cse562\" \"integrator\" \"schematic\" \"\")"
"simulator" "spectre"
"temperature" "27"
"host" ""
"date" "Dec 11 05:06:02 2015"
"title" ""
"analysisList" "()"
END
