HEADER
"PSFversion" "1.00"
"I27n" "NCSU_Analog_Parts_idc_spectre"
"N15n N14n N13n N12n N17n N1n N2n" "NCSU_Analog_Parts_nmos4_spectre"
"P4n P2n P5n" "NCSU_Analog_Parts_pmos4_spectre"
"V+v" ":1v"
"V-v" ":2v"
"Voutv" ":3v"
