HEADER
"PSFversion" "1.00"
"N2n N1n N0n" "NCSU_Analog_Parts_nmos4_spectre"
"P4n P3n P2n P1n P0n" "NCSU_Analog_Parts_pmos4_spectre"
"C0n" "NCSU_Analog_Parts_cap_spectre"
"I2n" "NCSU_Analog_Parts_idc_spectre"
"Vin+v" ":1v"
"Vin-v" ":2v"
"Voutv" ":3v"
