HEADER
"PSFversion" "1.00"
"design" "(\"cse562\" \"input_stage\" \"schematic\" \"\")"
"simulator" "spectre"
"temperature" "27"
"host" ""
"date" "Dec 10 18:29:32 2015"
"title" ""
"analysisList" "()"
END
