HEADER
"PSFversion" "1.00"
"design" "(\"cse463_project\" \"ALU_top_v1_test\" \"schematic\" \"\")"
"simulator" "spectre"
"temperature" "27"
"host" ""
"date" "Apr 26 07:31:32 2016"
"title" ""
"analysisList" "()"
END
