HEADER
"PSFversion" "1.00"
"design" "(\"563_final\" \"2_1_mux_test\" \"schematic\" \"\")"
"simulator" "spectre"
"temperature" "27"
"host" ""
"date" "Mar 25 21:39:40 2016"
"title" ""
"analysisList" "()"
END
