HEADER
"PSFversion" "1.00"
"Time Stamp" "Mar 25 21:39:40 2016"
TYPE
"variable" STRUCT(
"value" FLOAT DOUBLE
) PROP( "key" "element" )
VALUE
"temp" "variable" ( 27 ) PROP( )
END
