HEADER
"PSFversion" "1.00"
"__NEXT_FILE__" "cse463_project_8_bit_and_test_schematic"
