HEADER
"PSFversion" "1.00"
"design" "(\"cse562\" \"cmos_d_flip_flop\" \"schematic\" \"\")"
"simulator" "spectre"
"temperature" "27"
"host" ""
"date" "Dec 10 19:37:36 2015"
"title" ""
"analysisList" "()"
END
