HEADER
"PSFversion" "1.00"
"design" "(\"cse562\" \"true_ff\" \"schematic\" \"\")"
"simulator" "spectre"
"temperature" "27"
"host" ""
"date" "Dec 11 08:11:22 2015"
"title" ""
"analysisList" "()"
END
