HEADER
"PSFversion" "1.00"
"design" "(\"cse463_project\" \"closed_loop_add\" \"schematic\" \"\")"
"simulator" "spectre"
"temperature" "27"
"host" ""
"date" "Apr 26 07:34:08 2016"
"title" ""
"analysisList" "()"
END
