HEADER
"PSFversion" "1.00"
"design" "(\"cse463_project\" \"mux_extracted_test\" \"schematic\" \"\")"
"simulator" "spectre"
"temperature" "27"
"host" ""
"date" "May 11 03:54:16 2016"
"title" ""
"analysisList" "()"
END
