HEADER
"PSFversion" "1.00"
"design" "(\"cse562\" \"proj1_opamp_test\" \"schematic\" \"\")"
"simulator" "spectre"
"temperature" "27"
"host" ""
"date" "Oct  8 00:01:46 2015"
"title" ""
"analysisList" "()"
END
