HEADER
"PSFversion" "1.00"
"Time Stamp" "Oct  8 00:01:46 2015"
TYPE
"variable" STRUCT(
"value" FLOAT DOUBLE
) PROP( "key" "element" )
VALUE
"temp" "variable" ( 27 ) PROP( )
END
