HEADER
"PSFversion" "1.00"
"V_gsn V_dsn" "NCSU_Analog_Parts_vdc_spectre"
"P0n" "NCSU_Analog_Parts_pmos4_spectre"
