HEADER
"PSFversion" "1.00"
"I6n" "d_flop"
"V3n V2n V0n" "NCSU_Analog_Parts_vpulse_spectre"
"V1n" "NCSU_Analog_Parts_vdc_spectre"
"C1n C0n" "NCSU_Analog_Parts_cap_spectre"
