HEADER
"PSFversion" "1.00"
"I0n" "inv"
"V0n" "NCSU_Analog_Parts_vpulse_spectre"
"V1n" "NCSU_Analog_Parts_vdc_spectre"
