HEADER
"PSFversion" "1.00"
"design" "(\"cse562\" \"proj1_opamp_sweeptest\" \"schematic\" \"\")"
"simulator" "spectre"
"temperature" "27"
"host" ""
"date" "Oct  7 23:30:56 2015"
"title" ""
"analysisList" "()"
END
