HEADER
"PSFversion" "1.00"
"Time Stamp" "Mar  8 15:12:37 2016"
TYPE
"variable" STRUCT(
"value" FLOAT DOUBLE
) PROP( "key" "element" )
VALUE
"Vin1" "variable" ( 1.25 ) PROP( )
"Vin2" "variable" ( 5 ) PROP( )
"temp" "variable" ( 27 ) PROP( )
END
