HEADER
"PSFversion" "1.00"
"__NEXT_FILE__" "cmos_d_flip_flop"
