HEADER
"PSFversion" "1.00"
"I0n" "inv_schematic"
"V1n V0n" "NCSU_Analog_Parts_vdc_spectre"
"C0n" "NCSU_Analog_Parts_cap_spectre"
