HEADER
"PSFversion" "1.00"
"design" "(\"cse562\" \"last_ditch\" \"schematic\" \"\")"
"simulator" "spectre"
"temperature" "27"
"host" ""
"date" "Nov  9 15:57:23 2015"
"title" ""
"analysisList" "()"
END
