HEADER
"PSFversion" "1.00"
"I27n" "NCSU_Analog_Parts_idc_spectre"
"V0n" "NCSU_Analog_Parts_vpulse_spectre"
"P4n P2n P5n" "NCSU_Analog_Parts_pmos4_spectre"
"C0n" "NCSU_Analog_Parts_cap_spectre"
"V2n V1n" "NCSU_Analog_Parts_vdc_spectre"
"N1n N17n N15n N14n N2n N13n N12n" "NCSU_Analog_Parts_nmos4_spectre"
