HEADER
"PSFversion" "1.00"
"design" "(\"cse562\" \"poly_sources\" \"schematic\" \"\")"
"simulator" "spectre"
"temperature" "27"
"host" ""
"date" "Nov  2 15:34:37 2015"
"title" ""
"analysisList" "()"
END
