HEADER
"PSFversion" "1.00"
"design" "(\"cse562\" \"ota\" \"schematic\" \"\")"
"simulator" "spectre"
"temperature" "27"
"host" ""
"date" "Dec 11 09:11:19 2015"
"title" ""
"analysisList" "()"
END
