HEADER
"PSFversion" "1.00"
"design" "(\"cse562\" \"div2_test\" \"schematic\" \"\")"
"simulator" "spectre"
"temperature" "27"
"host" ""
"date" "Nov  2 09:19:17 2015"
"title" ""
"analysisList" "()"
END
