HEADER
"PSFversion" "1.00"
"__NEXT_FILE__" "y_logic_test"
