HEADER
"PSFversion" "1.00"
"V13n V0n" "NCSU_Analog_Parts_vdc_spectre"
"V6n V5n V4n V3n V2n V1n" "NCSU_Analog_Parts_vpulse_spectre"
"I9n I0n" "y_logic"
"C1n C0n" "NCSU_Analog_Parts_cap_spectre"
