HEADER
"PSFversion" "1.00"
"simulator" "spectre"
"version" "14.1.0.576.isr7"
"date" "2:58:40 PM, Tue Mar 8, 2016"
"design" "// Generated for: spectre"
"analysis type" "info.subckts"
"analysis name" "subckts"
"analysis description" "Circuit Information"
"xVecSorted" "unknown"
"tolerance.relative" 0.00100000
TYPE
"subckt" STRUCT(
"subckt_params" STRING *
"subckt_terminals" STRING *
) PROP(
"key" "sub"
)
VALUE
"cmos_nor" "subckt" (
""
"Vin1 Vin2 Vout 0 vdd!"
)
END
