HEADER
"PSFversion" "1.00"
"__NEXT_FILE__" "poly_final_test"
