HEADER
"PSFversion" "1.00"
"design" "(\"cse463_project\" \"single_muxed_ff_test\" \"schematic\" \"\")"
"simulator" "spectre"
"temperature" "27"
"host" ""
"date" "May 10 00:15:26 2016"
"title" ""
"analysisList" "()"
END
