HEADER
"PSFversion" "1.00"
"Time Stamp" "May 10 00:15:26 2016"
TYPE
"variable" STRUCT(
"value" FLOAT DOUBLE
) PROP( "key" "element" )
VALUE
"W" "variable" ( 1.8e-6 ) PROP( )
"temp" "variable" ( 27 ) PROP( )
END
