HEADER
"PSFversion" "1.00"
"design" "(\"cse562\" \"poly_final_test\" \"schematic\" \"\")"
"simulator" "spectre"
"temperature" "27"
"host" ""
"date" "Nov  9 15:30:51 2015"
"title" ""
"analysisList" "()"
END
