HEADER
"PSFversion" "1.00"
"design" "(\"cse562\" \"poly\" \"schematic\" \"\")"
"simulator" "spectre"
"temperature" "27"
"host" ""
"date" "Nov  2 14:15:47 2015"
"title" ""
"analysisList" "()"
END
