HEADER
"PSFversion" "1.00"
"design" "(\"cse562\" \"mirror5\" \"schematic\" \"\")"
"simulator" "spectre"
"temperature" "27"
"host" ""
"date" "Nov  6 13:46:56 2015"
"title" ""
"analysisList" "()"
END
