HEADER
"PSFversion" "1.00"
"design" "(\"563_final\" \"cmos_nor_test\" \"schematic\" \"\")"
"simulator" "spectre"
"temperature" "27"
"host" ""
"date" "Mar  8 14:58:43 2016"
"title" ""
"analysisList" "()"
END
