HEADER
"PSFversion" "1.00"
"I56n I55n I54n I53n I52n I51n I44n I43n" "single_muxed_ff"
"F1v" ":1v"
"F2v" ":2v"
"In0v" ":3v"
"In1v" ":4v"
"In2v" ":5v"
"In3v" ":6v"
"In4v" ":7v"
"In5v" ":8v"
"In6v" ":9v"
"In7v" ":10v"
"Out0v" ":11v"
"Out1v" ":12v"
"Out2v" ":13v"
"Out3v" ":14v"
"Out4v" ":15v"
"Out5v" ":16v"
"Out6v" ":17v"
"Out7v" ":18v"
"S0v" ":19v"
"S1v" ":20v"
"[@inh_bn:%:gnd!]v" ":21v"
