HEADER
"PSFversion" "1.00"
"M0n" "NCSU_Analog_Parts_nmos_spectre"
"M1n" "NCSU_Analog_Parts_pmos_spectre"
"V0n" "NCSU_Analog_Parts_vpulse_spectre"
"V1n" "NCSU_Analog_Parts_vdc_spectre"
