HEADER
"PSFversion" "1.00"
"design" "(\"cse562\" \"volt_mode\" \"schematic\" \"\")"
"simulator" "spectre"
"temperature" "27"
"host" ""
"date" "Dec 11 13:43:56 2015"
"title" ""
"analysisList" "()"
END
