HEADER
"PSFversion" "1.00"
"__NEXT_FILE__" "d_ff_test"
