HEADER
"PSFversion" "1.00"
"__NEXT_FILE__" "proj1_opamp_part2"
