HEADER
"PSFversion" "1.00"
"C0n" "NCSU_Analog_Parts_cap_spectre"
"I27n" "NCSU_Analog_Parts_idc_spectre"
"N2n N1n N17n N15n N14n N13n N12n" "NCSU_Analog_Parts_nmos4_spectre"
"V1n V2n" "NCSU_Analog_Parts_vdc_spectre"
"P4n P5n P2n" "NCSU_Analog_Parts_pmos4_spectre"
"V0n" "NCSU_Analog_Parts_vpulse_spectre"
