HEADER
"PSFversion" "1.00"
"__NEXT_FILE__" "simple_latch_test"
