HEADER
"PSFversion" "1.00"
"design" "(\"cse463_project\" \"ff_extracted_test\" \"schematic\" \"\")"
"simulator" "spectre"
"temperature" "27"
"host" ""
"date" "May 11 04:01:23 2016"
"title" ""
"analysisList" "()"
END
