HEADER
"PSFversion" "1.00"
"I0n" "_sub0"
"C1n" "NCSU_Analog_Parts_cap_spectre"
"V5n V6n V4n" "NCSU_Analog_Parts_vpulse_spectre"
"V0n" "NCSU_Analog_Parts_vdc_spectre"
