HEADER
"PSFversion" "1.00"
"__NEXT_FILE__" "new_op_amp_test"
