HEADER
"PSFversion" "1.00"
"I0n I1n I2n I3n I4n I5n I6n I7n" "min_inv"
"IN0v" ":1v"
"IN1v" ":2v"
"IN2v" ":3v"
"IN3v" ":4v"
"IN4v" ":5v"
"IN5v" ":6v"
"IN6v" ":7v"
"IN7v" ":8v"
"OUT0v" ":9v"
"OUT1v" ":10v"
"OUT2v" ":11v"
"OUT3v" ":12v"
"OUT4v" ":13v"
"OUT5v" ":14v"
"OUT6v" ":15v"
"OUT7v" ":16v"
