HEADER
"PSFversion" "1.00"
"I0n" "d_flip_flop"
"I1n" "cse463_project_3_1_mux_schematic"
"F1v" ":1v"
"F2v" ":2v"
"Loadv" ":3v"
"Outv" ":4v"
"S0v" ":5v"
"S1v" ":6v"
"[@inh_bn:%:gnd!]v" ":7v"
