HEADER
"PSFversion" "1.00"
"__NEXT_FILE__" "closed_loop_add"
