HEADER
"PSFversion" "1.00"
"I0n" "proj1_opamp"
"V0n" "NCSU_Analog_Parts_vdc_spectre"
"V1n" "NCSU_Analog_Parts_vsin_spectre"
