HEADER
"PSFversion" "1.00"
"design" "(\"cse563\" \"pmos_threshold\" \"schematic\" \"\")"
"simulator" "spectre"
"temperature" "27"
"host" ""
"date" "Feb  4 15:50:30 2016"
"title" ""
"analysisList" "()"
END
