HEADER
"PSFversion" "1.00"
"Time Stamp" "Feb  4 15:50:30 2016"
TYPE
"variable" STRUCT(
"value" FLOAT DOUBLE
) PROP( "key" "element" )
VALUE
"pL" "variable" ( 900e-9 ) PROP( )
"pW" "variable" ( 900e-9 ) PROP( )
"temp" "variable" ( 27 ) PROP( )
END
