HEADER
"PSFversion" "1.00"
"I1n" "NCSU_Analog_Parts_idc_spectre"
"N5n N4n N3n N2n N1n N0n" "NCSU_Analog_Parts_nmos4_spectre"
"Inv" ":1v"
"Outv" ":2v"
