HEADER
"PSFversion" "1.00"
"I0n" "cube"
"I5n" "NCSU_Analog_Parts_idc_spectre"
"V0n" "NCSU_Analog_Parts_vdc_spectre"
