HEADER
"PSFversion" "1.00"
"design" "(\"cse463_project\" \"3_1_mux_test\" \"schematic\" \"\")"
"simulator" "spectre"
"temperature" "27"
"host" ""
"date" "Apr 14 14:02:15 2016"
"title" ""
"analysisList" "()"
END
