HEADER
"PSFversion" "1.00"
"simulator" "spectre"
"version" "14.1.0.576.isr7"
"date" "2:02:20 PM, Thur Apr 14, 2016"
"design" "// Generated for: spectre"
"analysis type" "info.subckts"
"analysis name" "subckts"
"analysis description" "Circuit Information"
"xVecSorted" "unknown"
"tolerance.relative" 0.00100000
TYPE
"subckt" STRUCT(
"subckt_params" STRING *
"subckt_terminals" STRING *
) PROP(
"key" "sub"
)
VALUE
"cse463_project_3_1_mux_schematic" "subckt" (
""
"Hold Load Out S0 S1 inh_inh_bn 0 vdd!"
)
END
