HEADER
"PSFversion" "1.00"
"design" "(\"cse562\" \"simple_latch\" \"schematic\" \"\")"
"simulator" "spectre"
"temperature" "27"
"host" ""
"date" "Dec 10 20:05:52 2015"
"title" ""
"analysisList" "()"
END
