HEADER
"PSFversion" "1.00"
"design" "(\"cse562\" \"comparator+simple\" \"schematic\" \"\")"
"simulator" "spectre"
"temperature" "27"
"host" ""
"date" "Dec 11 02:38:35 2015"
"title" ""
"analysisList" "()"
END
