HEADER
"PSFversion" "1.00"
"design" "(\"cse562\" \"div2\" \"schematic\" \"\")"
"simulator" "spectre"
"temperature" "27"
"host" ""
"date" "Nov  2 11:44:53 2015"
"title" ""
"analysisList" "()"
END
