HEADER
"PSFversion" "1.00"
"design" "(\"cse463_project\" \"ALU_top_bens_mux_test\" \"schematic\" \"\")"
"simulator" "spectre"
"temperature" "27"
"host" ""
"date" "Apr 26 05:54:23 2016"
"title" ""
"analysisList" "()"
END
