HEADER
"PSFversion" "1.00"
"design" "(\"563_final\" \"cmos_nand_test\" \"schematic\" \"\")"
"simulator" "spectre"
"temperature" "27"
"host" ""
"date" "Mar  8 15:12:38 2016"
"title" ""
"analysisList" "()"
END
