HEADER
"PSFversion" "1.00"
"N1n N0n" "NCSU_Analog_Parts_nmos4_spectre"
"P1n P0n" "NCSU_Analog_Parts_pmos4_spectre"
"Vin1v" ":1v"
"Vin2v" ":2v"
"Voutv" ":3v"
