HEADER
"PSFversion" "1.00"
"I12n" "ff_inv"
"V1n V0n" "NCSU_Analog_Parts_vdc_spectre"
"C0n" "NCSU_Analog_Parts_cap_spectre"
