HEADER
"PSFversion" "1.00"
"__NEXT_FILE__" "bb_inv_test"
