HEADER
"PSFversion" "1.00"
"I35n I9n I21n" "NCSU_Analog_Parts_idc_spectre"
"N15n N14n N13n N12n N11n N10n N4n N5n N6n N7n" "NCSU_Analog_Parts_nmos4_spectre"
"V2n" "NCSU_Analog_Parts_vdc_spectre"
"P3n P1n P0n" "NCSU_Analog_Parts_pmos4_spectre"
