HEADER
"PSFversion" "1.00"
"design" "(\"cse562\" \"mirror3\" \"schematic\" \"\")"
"simulator" "spectre"
"temperature" "27"
"host" ""
"date" "Nov  6 09:32:22 2015"
"title" ""
"analysisList" "()"
END
