HEADER
"PSFversion" "1.00"
"Time Stamp" "Nov  6 09:32:22 2015"
TYPE
"variable" STRUCT(
"value" FLOAT DOUBLE
) PROP( "key" "element" )
VALUE
"tL" "variable" ( 500e-9 ) PROP( )
"tW" "variable" ( 15e-6 ) PROP( )
"temp" "variable" ( 27 ) PROP( )
END
