HEADER
"PSFversion" "1.00"
"I0n" "cse463_project_3_1_mux_schematic"
"V2n V1n V0n" "NCSU_Analog_Parts_vpulse_spectre"
"V3n" "NCSU_Analog_Parts_vdc_spectre"
