HEADER
"PSFversion" "1.00"
"__NEXT_FILE__" "cse463_project_3_1_mux_test_schematic"
