HEADER
"PSFversion" "1.00"
"design" "(\"cse563\" \"nmos_threshold\" \"schematic\" \"\")"
"simulator" "spectre"
"temperature" "27"
"host" ""
"date" "Feb  4 15:49:57 2016"
"title" ""
"analysisList" "()"
END
