HEADER
"PSFversion" "1.00"
"I9n I10n I11n I22n I20n I19n I18n I17n" "Adder_2"
"A0v" ":1v"
"A1v" ":2v"
"A2v" ":3v"
"A3v" ":4v"
"A4v" ":5v"
"A5v" ":6v"
"A6v" ":7v"
"A7v" ":8v"
"B0v" ":9v"
"B1v" ":10v"
"B2v" ":11v"
"B3v" ":12v"
"B4v" ":13v"
"B5v" ":14v"
"B6v" ":15v"
"B7v" ":16v"
"Ev" ":17v"
"out0v" ":18v"
"out1v" ":19v"
"out2v" ":20v"
"out3v" ":21v"
"out4v" ":22v"
"out5v" ":23v"
"out6v" ":24v"
"out7v" ":25v"
"[@inh_bn:%:gnd!]v" ":26v"
