HEADER
"PSFversion" "1.00"
"M16n M10n M9n M8n M7n M6n M5n M4n M3n M2n M1n M0n" "NCSU_Analog_Parts_nmos_spectre"
"M31n M32n M30n M25n" "NCSU_Analog_Parts_pmos_spectre"
"I18n I19n" "min_inv"
"Av" ":1v"
"Bv" ":2v"
"Cv" ":3v"
"CarryOutv" ":4v"
"Setv" ":5v"
"[@inh_bn:%:gnd!]v" ":6v"
