HEADER
"PSFversion" "1.00"
"I0n I2n I1n I4n I6n I5n I3n I7n" "min_or"
"AC0v" ":1v"
"AC1v" ":2v"
"AC2v" ":3v"
"AC3v" ":4v"
"AC4v" ":5v"
"AC5v" ":6v"
"AC6v" ":7v"
"AC7v" ":8v"
"IN0v" ":9v"
"IN4v" ":10v"
"IN5v" ":11v"
"IN6v" ":12v"
"In1v" ":13v"
"In2v" ":14v"
"In3v" ":15v"
"In7v" ":16v"
"OUT0v" ":17v"
"OUT1v" ":18v"
"OUT2v" ":19v"
"OUT3v" ":20v"
"OUT4v" ":21v"
"OUT5v" ":22v"
"OUT6v" ":23v"
"OUT7v" ":24v"
"[@inh_bn:%:gnd!]v" ":25v"
