HEADER
"PSFversion" "1.00"
"N0n" "NCSU_Analog_Parts_nmos4_spectre"
"P0n" "NCSU_Analog_Parts_pmos4_spectre"
"Inv" ":1v"
"outv" ":2v"
