HEADER
"PSFversion" "1.00"
"M3n M2n M1n M0n" "NCSU_Analog_Parts_nmos_spectre"
"M5n M4n" "NCSU_Analog_Parts_pmos_spectre"
"Holdv" ":1v"
"Loadv" ":2v"
"Outv" ":3v"
"S0v" ":4v"
"S1v" ":5v"
"[@inh_bn:%:gnd!]v" ":6v"
