HEADER
"PSFversion" "1.00"
"I94n I93n I92n I91n I90n I89n I88n I87n" "IR_trigate"
"I60n I64n I61n I62n I67n I65n I66n I63n" "single_muxed_ff"
"F1v" ":1v"
"F2v" ":2v"
"In0v" ":3v"
"In1v" ":4v"
"In2v" ":5v"
"In3v" ":6v"
"In4v" ":7v"
"In5v" ":8v"
"In6v" ":9v"
"In7v" ":10v"
"N0v" ":11v"
"N0Bv" ":12v"
"N1v" ":13v"
"N1Bv" ":14v"
"Out0v" ":15v"
"Out1v" ":16v"
"Out2v" ":17v"
"Out3v" ":18v"
"Out4v" ":19v"
"Out5v" ":20v"
"Out6v" ":21v"
"Out7v" ":22v"
"S0v" ":23v"
"S0Bv" ":24v"
"S1v" ":25v"
"S1Bv" ":26v"
"[@inh_bn:%:gnd!]v" ":27v"
