HEADER
"PSFversion" "1.00"
"design" "(\"cse562\" \"comparator\" \"schematic\" \"\")"
"simulator" "spectre"
"temperature" "27"
"host" ""
"date" "Dec 11 02:25:25 2015"
"title" ""
"analysisList" "()"
END
