HEADER
"PSFversion" "1.00"
"design" "(\"cse463_project\" \"7_1_mux_alt_test\" \"schematic\" \"\")"
"simulator" "spectre"
"temperature" "27"
"host" ""
"date" "Apr 26 03:36:20 2016"
"title" ""
"analysisList" "()"
END
