HEADER
"PSFversion" "1.00"
"simulator" "spectre"
"version" "14.1.0.576.isr7"
"date" "3:36:25 AM, Tue Apr 26, 2016"
"design" "// Generated for: spectre"
"analysis type" "info.subckts"
"analysis name" "subckts"
"analysis description" "Circuit Information"
"xVecSorted" "unknown"
"tolerance.relative" 0.00100000
TYPE
"subckt" STRUCT(
"subckt_params" STRING *
"subckt_terminals" STRING *
) PROP(
"key" "sub"
)
VALUE
"min_inv" "subckt" (
""
"In out 0 vdd!"
)
"cse463_project_7_1_mux_alt_schematic" "subckt" (
""
"Adder DM_AC_AND DM_AC_OR DR_AC_XOR DR_COM DR_direct INPR_direct Out S0 S0B S1 S1B S2 S2B inh_inh_bn vdd!"
)
END
