HEADER
"PSFversion" "1.00"
"design" "(\"cse562\" \"bad_comparator\" \"schematic\" \"\")"
"simulator" "spectre"
"temperature" "27"
"host" ""
"date" "Dec 11 01:49:34 2015"
"title" ""
"analysisList" "()"
END
