HEADER
"PSFversion" "1.00"
"N13n N12n N11n N10n N9n N8n N6n N5n N3n" "NCSU_Analog_Parts_nmos4_spectre"
"P13n P12n P11n P10n P9n P7n P6n P5n P4n" "NCSU_Analog_Parts_pmos4_spectre"
"V1n V0n" "NCSU_Analog_Parts_vpulse_spectre"
