HEADER
"PSFversion" "1.00"
"design" "(\"563_final\" \"hw4_inv_test\" \"schematic\" \"\")"
"simulator" "spectre"
"temperature" "27"
"host" ""
"date" "Feb 18 16:13:16 2016"
"title" ""
"analysisList" "()"
END
