HEADER
"PSFversion" "1.00"
"design" "(\"563_final\" \"bb_inv_test\" \"schematic\" \"\")"
"simulator" "spectre"
"temperature" "27"
"host" ""
"date" "Mar 29 13:16:26 2016"
"title" ""
"analysisList" "()"
END
