HEADER
"PSFversion" "1.00"
"Time Stamp" "Mar 29 13:16:26 2016"
TYPE
"variable" STRUCT(
"value" FLOAT DOUBLE
) PROP( "key" "element" )
VALUE
"temp" "variable" ( 27 ) PROP( )
END
