HEADER
"PSFversion" "1.00"
"I0n" "cse463_project_3_1_mux_alt_extracted"
"V4n V3n V2n V1n V0n" "NCSU_Analog_Parts_vdc_spectre"
"C0n" "NCSU_Analog_Parts_cap_spectre"
"V5n" "NCSU_Analog_Parts_vpulse_spectre"
