HEADER
"PSFversion" "1.00"
"__NEXT_FILE__" "mux_extracted_test"
