HEADER
"PSFversion" "1.00"
"design" "(\"563_final\" \"y_logic_test\" \"schematic\" \"\")"
"simulator" "spectre"
"temperature" "27"
"host" ""
"date" "Mar 25 21:36:07 2016"
"title" ""
"analysisList" "()"
END
