HEADER
"PSFversion" "1.00"
"design" "(\"cse562\" \"myLatch_test\" \"schematic\" \"\")"
"simulator" "spectre"
"temperature" "27"
"host" ""
"date" "Dec 10 23:05:10 2015"
"title" ""
"analysisList" "()"
END
