HEADER
"PSFversion" "1.00"
"V1n V0n" "NCSU_Analog_Parts_vdc_spectre"
"N5n" "NCSU_Analog_Parts_nmos4_spectre"
