HEADER
"PSFversion" "1.00"
"N0n" "NCSU_Analog_Parts_nmos4_spectre"
"V_dsn V_gsn" "NCSU_Analog_Parts_vdc_spectre"
