HEADER
"PSFversion" "1.00"
"I6n" "div2"
"V0n" "NCSU_Analog_Parts_vdc_spectre"
"I4n" "NCSU_Analog_Parts_idc_spectre"
