HEADER
"PSFversion" "1.00"
"design" "(\"563_final\" \"d_flop_test\" \"schematic\" \"\")"
"simulator" "spectre"
"temperature" "27"
"host" ""
"date" "Apr  9 17:20:00 2016"
"title" ""
"analysisList" "()"
END
