HEADER
"PSFversion" "1.00"
"design" "(\"cse463_project\" \"ALU_test\" \"schematic\" \"\")"
"simulator" "spectre"
"temperature" "27"
"host" ""
"date" "Apr 26 04:48:04 2016"
"title" ""
"analysisList" "()"
END
