HEADER
"PSFversion" "1.00"
"design" "(\"563_final\" \"inv_test\" \"schematic\" \"\")"
"simulator" "spectre"
"temperature" "27"
"host" ""
"date" "Feb 13 16:32:48 2016"
"title" ""
"analysisList" "()"
END
