HEADER
"PSFversion" "1.00"
"Time Stamp" "Feb 13 16:32:48 2016"
TYPE
"variable" STRUCT(
"value" FLOAT DOUBLE
) PROP( "key" "element" )
VALUE
"temp" "variable" ( 27 ) PROP( )
END
