HEADER
"PSFversion" "1.00"
"V3n V1n V4n" "NCSU_Analog_Parts_vdc_spectre"
"N0n N17n" "NCSU_Analog_Parts_nmos4_spectre"
"P0n P2n" "NCSU_Analog_Parts_pmos4_spectre"
