HEADER
"PSFversion" "1.00"
"V0n" "NCSU_Analog_Parts_vdc_spectre"
"I13n" "squarer"
"Biasn Inputn" "NCSU_Analog_Parts_idc_spectre"
"N2n N1n N0n" "NCSU_Analog_Parts_nmos4_spectre"
"P1n P0n" "NCSU_Analog_Parts_pmos4_spectre"
